LAMMPS (15 Sep 2022)
OMP_NUM_THREADS environment is not set. Defaulting to 1 thread. (src/comm.cpp:98)
  using 1 OpenMP thread(s) per MPI task
#sample LAMMPS input script for thermal conductivity of real
units                       real
atom_style                  full
neighbor                    2.0 bin
neigh_modify delay 0 every 1 check yes
timestep                    0.002
#使用混合势力场
pair_style hybrid  tersoff lj/class2/coul/long 14.5 lj/cut 14.5
bond_style      class2
angle_style     class2
dihedral_style  class2
improper_style  class2

read_data  BNNS-OH-15.data
Reading data file ...
  orthogonal box = (0 0 0) to (61.7282 61.7282 61.7282)
  2 by 2 by 2 MPI processor grid
  reading atoms ...
  14040 atoms
  scanning bonds ...
  3 = max bonds/atom
  scanning angles ...
  6 = max angles/atom
  scanning dihedrals ...
  15 = max dihedrals/atom
  scanning impropers ...
  4 = max impropers/atom
  reading bonds ...
  14985 bonds
  reading angles ...
  27615 angles
  reading dihedrals ...
  44790 dihedrals
  reading impropers ...
  15285 impropers
Finding 1-2 1-3 1-4 neighbors ...
  special bond factors lj:    0        0        0       
  special bond factors coul:  0        0        0       
     4 = max # of 1-2 neighbors
     7 = max # of 1-3 neighbors
    18 = max # of 1-4 neighbors
    21 = max # of special neighbors
  special bonds CPU = 0.011 seconds
  read_data CPU = 1.721 seconds

pair_coeff * * tersoff BN2.tersoff  B NULL NULL NULL NULL NULL N NULL NULL
Reading tersoff potential file BN2.tersoff with DATE: 2017-11-28
WARNING: Converting tersoff potential in metal units to real units (src/potential_file_reader.cpp:289)
pair_coeff 2 2     lj/class2/coul/long	0.0540     4.0100  # c1   -> c
pair_coeff 3 3     lj/class2/coul/long	0.0540     4.0100  # c2   -> c
pair_coeff 4 4     lj/class2/coul/long	0.0540     4.0100  # coh  -> c
pair_coeff 5 5     lj/class2/coul/long	0.0200     2.9950  # hc   -> h
pair_coeff 6 6     lj/class2/coul/long	0.0130     1.0980  # ho   -> h*
pair_coeff 8 8   lj/class2/coul/long	0.2400     3.5350  # oc   -> o
pair_coeff 9 9   lj/class2/coul/long	0.2400     3.5350  # oh   -> o
pair_coeff 1 2 lj/cut 0.07000 4.01
pair_coeff 1 3 lj/cut 0.07000 4.01
pair_coeff 1 4 lj/cut 0.07000 4.01
pair_coeff 1 5 lj/cut 0.03000 3.47
pair_coeff 1 6 lj/cut 0.04000 2.1
pair_coeff 1 8 lj/cut 0.15000 3.77
pair_coeff 1 9 lj/cut 0.15000 3.77
pair_coeff 2 7 lj/cut 0.01033 3.85
pair_coeff 3 7 lj/cut 0.01033 3.85
pair_coeff 4 7 lj/cut 0.01033 3.85
pair_coeff 5 7 lj/cut 0.00600 3.33
pair_coeff 6 7 lj/cut 0.00249 2.01
pair_coeff 7 8 lj/cut 0.04591 3.61
pair_coeff 7 9 lj/cut 0.04591 3.61
kspace_style    pppm 1e-4
#热力学信息输出
thermo 10000
thermo_style custom step temp vol press
#能量最小化
thermo 1000
thermo_style custom step temp pe ke press
dump 1 all atom 1000 h-BN-cnf.lammpstrj
min_style cg
minimize 1.0e-15 1.0e-15 10000 10000
PPPM initialization ...
WARNING: System is not charge neutral, net charge = 0.0015 (src/kspace.cpp:327)
  using 12-bit tables for long-range coulomb (src/kspace.cpp:342)
  G vector (1/distance) = 0.15837073
  grid = 15 15 15
  stencil order = 5
  estimated absolute RMS force accuracy = 0.028006063
  estimated relative force accuracy = 8.4339426e-05
  using double precision FFTW3
  3d grid and FFT values/proc = 2197 512
WARNING: Using a manybody potential with bonds/angles/dihedrals and special_bond exclusions (src/pair.cpp:245)
Neighbor list info ...
  update: every = 1 steps, delay = 0 steps, check = yes
  max neighbors/atom: 2000, page size: 100000
  master list distance cutoff = 16.5
  ghost atom cutoff = 16.5
  binsize = 8.25, bins = 8 8 8
  5 neighbor lists, perpetual/occasional/extra = 5 0 0
  (1) pair tersoff, perpetual, skip from (4)
      attributes: full, newton on, cut 4.2
      pair build: skip
      stencil: none
      bin: none
  (2) pair lj/class2/coul/long, perpetual, skip from (5)
      attributes: half, newton on
      pair build: skip
      stencil: none
      bin: none
  (3) pair lj/cut, perpetual, skip from (5)
      attributes: half, newton on
      pair build: skip
      stencil: none
      bin: none
  (4) neighbor class addition, perpetual
      attributes: full, newton on, cut 4.2
      pair build: full/bin
      stencil: full/bin/3d
      bin: standard
  (5) neighbor class addition, perpetual
      attributes: half, newton on
      pair build: half/bin/newton
      stencil: half/bin/3d
      bin: standard
WARNING: Inconsistent image flags (src/domain.cpp:819)
Per MPI rank memory allocation (min/avg/max) = 26.84 | 29.56 | 32.19 Mbytes
   Step          Temp          PotEng         KinEng         Press     
         0   0              1.9873318e+17  0              2.3173219e+17
       535   0             -149144.08      0              30919.901    
WARNING: Bond/angle/dihedral extent > half of periodic box length (src/domain.cpp:940)
Loop time of 408.829 on 8 procs for 535 steps with 14040 atoms

83.1% CPU use with 8 MPI tasks x 1 OpenMP threads

Minimization stats:
  Stopping criterion = linesearch alpha is zero
  Energy initial, next-to-last, final = 
    1.98733175034027e+17  -149144.078991239  -149144.078991239
  Force two-norm initial, final = 3.7870877e+19 19924.988
  Force max component initial, final = 2.051744e+19 15777.054
  Final line search alpha, max atom move = 2.305867e-17 3.6379788e-13
  Iterations, force evaluations = 535 4328

MPI task timing breakdown:
Section |  min time  |  avg time  |  max time  |%varavg| %total
---------------------------------------------------------------
Pair    | 114.72     | 188.85     | 326.73     | 532.3 | 46.19
Bond    | 14.518     | 24.628     | 39.705     | 178.7 |  6.02
Kspace  | 38.4       | 191.37     | 275.32     | 589.7 | 46.81
Neigh   | 1.4418     | 1.4462     | 1.4498     |   0.2 |  0.35
Comm    | 1.724      | 1.8172     | 1.9733     |   6.0 |  0.44
Output  | 0          | 0          | 0          |   0.0 |  0.00
Modify  | 0          | 0          | 0          |   0.0 |  0.00
Other   |            | 0.7185     |            |       |  0.18

Nlocal:           1755 ave        2197 max        1399 min
Histogram: 1 1 0 1 3 0 0 1 0 1
Nghost:        13760.8 ave       14208 max       13326 min
Histogram: 1 0 1 0 3 1 0 0 1 1
Neighs:              0 ave           0 max           0 min
Histogram: 8 0 0 0 0 0 0 0 0 0

Total # of neighbors = 0
Ave neighs/atom = 0
Ave special neighs/atom = 12.012821
Neighbor list builds = 14
Dangerous builds = 0
undump 1
reset_timestep 0

#1st equilibration run
velocity      all create 300 87287 dist gaussian
fix                                1 all nvt temp 300 300 100
run                              600000
PPPM initialization ...
  using 12-bit tables for long-range coulomb (src/kspace.cpp:342)
  G vector (1/distance) = 0.15837073
  grid = 15 15 15
  stencil order = 5
  estimated absolute RMS force accuracy = 0.028006063
  estimated relative force accuracy = 8.4339426e-05
  using double precision FFTW3
  3d grid and FFT values/proc = 2197 512
WARNING: Using a manybody potential with bonds/angles/dihedrals and special_bond exclusions (src/pair.cpp:245)
Neighbor list info ...
  update: every = 1 steps, delay = 0 steps, check = yes
  max neighbors/atom: 2000, page size: 100000
  master list distance cutoff = 16.5
  ghost atom cutoff = 16.5
  binsize = 8.25, bins = 8 8 8
  5 neighbor lists, perpetual/occasional/extra = 5 0 0
  (1) pair tersoff, perpetual, skip from (4)
      attributes: full, newton on
      pair build: skip
      stencil: none
      bin: none
  (2) pair lj/class2/coul/long, perpetual, skip from (5)
      attributes: half, newton on
      pair build: skip
      stencil: none
      bin: none
  (3) pair lj/cut, perpetual, skip from (5)
      attributes: half, newton on
      pair build: skip
      stencil: none
      bin: none
  (4) neighbor class addition, perpetual
      attributes: full, newton on
      pair build: full/bin
      stencil: full/bin/3d
      bin: standard
  (5) neighbor class addition, perpetual, half/full from (4)
      attributes: half, newton on
      pair build: halffull/newton
      stencil: none
      bin: none
WARNING: Inconsistent image flags (src/domain.cpp:819)
WARNING: Bond/angle/dihedral extent > half of periodic box length (src/domain.cpp:940)
Per MPI rank memory allocation (min/avg/max) = 30.1 | 35.2 | 41.16 Mbytes
   Step          Temp          PotEng         KinEng         Press     
         0   300           -149144.08      12554.278      33359.811    
      1000   232.63201     -146222.08      9735.0895      33460.496    
      2000   190.92492     -144475.26      7989.7483      31700.183    
      3000   164.73892     -143376.07      6893.9272      31293.146    
      4000   157.93306     -143086.12      6609.1185      32470.436    
      5000   221.49819     -145736.55      9269.166       32081.239    
      6000   245.45694     -146725.47      10271.782      30833.978    
      7000   240.91081     -146520.58      10081.537      29329.315    
      8000   235.79556     -146291.23      9867.4765      28995.952    
      9000   238.78414     -146401.14      9992.5414      29920.606    
     10000   238.40402     -146369.67      9976.6342      31057.996    
     11000   282.81268     -148211.65      11835.03       30272.584    
     12000   300.71612     -148944.67      12584.246      29181.832    
     13000   308.34973     -149250.08      12903.694      28455.483    
     14000   345.34298     -150785         14451.772      27743.327    
     15000   342.50947     -150656.65      14333.197      28287.344    
     16000   362.36342     -151479.96      15164.037      28379.594    
     17000   382.65052     -152324.69      16013.003      28104.831    
     18000   383.16233     -152344.95      16034.421      27123.272    
     19000   403.09502     -153181.64      16868.556      25213.72     
     20000   420.823       -153930.1       17610.429      24332.59     
     21000   433.89926     -154489.78      18157.639      24723.366    
     22000   449.3592      -155155.2       18804.601      25227.478    
     23000   470.05555     -156043.7       19670.693      24293.251    
     24000   462.92651     -155778.43      19372.36       22815.496    
     25000   482.21605     -156623.9       20179.581      21300.794    
     26000   498.78127     -157363.71      20872.795      21667.433    
     27000   505.32214     -157684.39      21146.515      23052.396    
     28000   532.88042     -158894.62      22299.762      22774.695    
     29000   534.95553     -159043.09      22386.601      21064.768    
     30000   541.52539     -159380.5       22661.534      19159.536    
     31000   555.50279     -160030.11      23246.454      18521.137    
     32000   563.41652     -160428.82      23577.625      19372.943    
     33000   571.84936     -160852.23      23930.519      19548.121    
     34000   584.62482     -161461.46      24465.141      18041.407    
     35000   586.05841     -161599.88      24525.134      16275.157    
     36000   587.28228     -161732.05      24576.349      15344.617    
     37000   603.01923     -162475.18      25234.903      15351.173    
     38000   604.77102     -162638.15      25308.211      15812.704    
     39000   615.55353     -163182.18      25759.433      15342.573    
     40000   624.1233      -163639.26      26118.057      14267.663    
     41000   622.93151     -163690.01      26068.184      13386.713    
     42000   631.61195     -164157.32      26431.439      12999.027    
     43000   638.23138     -164542.01      26708.447      13150.929    
     44000   643.4222      -164870.25      26925.67       13251.8      
     45000   648.06394     -165178.53      27119.916      13055.485    
     46000   652.78898     -165492.78      27317.647      12093.757    
     47000   651.83008     -165572.17      27277.519      11091.773    
     48000   657.23375     -165919.92      27503.65       10657.943    
     49000   662.65326     -166271.34      27730.443      11448.669    
     50000   664.06154     -166457.9       27789.377      12476.085    
     51000   671.71103     -166907.22      28109.489      12055.089    
     52000   667.03978     -166844.37      27914.009      10668.828    
     53000   667.9596      -167016.48      27952.501      9493.8002    
     54000   675.36782     -167462.58      28262.517      9595.3851    
     55000   679.57546     -167777.45      28438.597      10805.443    
     56000   685.1546      -168152.42      28672.07       11331.016    
     57000   687.17756     -168381.96      28756.726      10218.244    
     58000   684.33404     -168408.87      28637.732      8570.9516    
     59000   684.04678     -168543.75      28625.711      8060.0527    
     60000   692.59746     -169051.08      28983.536      8679.2409    
     61000   691.68727     -169166.07      28945.447      9650.9003    
     62000   693.98488     -169415.03      29041.596      9337.968     
     63000   697.35952     -169711.19      29182.817      8049.9287    
     64000   692.21741     -169652.3       28967.632      7188.4892    
     65000   694.95316     -169926.75      29082.117      7060.1739    
     66000   697.15559     -170178.54      29174.283      7517.0362    
     67000   698.75012     -170407.07      29241.01       7864.4409    
     68000   699.76436     -170612.69      29283.454      7449.1009    
     69000   702.9317      -170784.99      29415.999      6321.7975    
     70000   700.6444      -170855.08      29320.281      5375.0961    
     71000   700.66337     -171021.81      29321.075      5174.0798    
     72000   701.65573     -171231.65      29362.603      5952.0995    
     73000   701.1473      -171379.46      29341.326      6598.6002    
     74000   702.84426     -171620.91      29412.34       6361.703     
     75000   696.31582     -171518.64      29139.141      5356.6836    
     76000   692.82663     -171542.35      28993.126      4625.81      
     77000   696.9671      -171886.2       29166.395      4790.7079    
     78000   694.6115      -171959.01      29067.819      5715.8583    
     79000   695.5152      -172169.24      29105.636      5889.7542    
     80000   691.00572     -172152.62      28916.926      4724.6658    
     81000   689.54098     -172263.54      28855.63       3359.8757    
     82000   689.34934     -172428.68      28847.61       2862.2419    
     83000   692.26452     -172723.05      28969.603      3515.9762    
     84000   690.58557     -172827.73      28899.343      4198.0415    
     85000   688.82188     -172928.08      28825.537      3965.7254    
     86000   691.77524     -173227.06      28949.128      3277.3987    
     87000   686.76473     -173192.93      28739.45       3099.1138    
     88000   686.46972     -173355.94      28727.105      3521.1451    
     89000   684.69358     -173457.84      28652.778      4160.3135    
     90000   683.17773     -173570.56      28589.343      4525.567     
     91000   685.10196     -173827.6       28669.867      4110.7377    
     92000   682.09036     -173878.54      28543.839      3510.0523    
     93000   677.98355     -173882.7       28371.979      3154.8818    
     94000   676.82507     -174010.68      28323.499      3316.0298    
     95000   676.93594     -174191.39      28328.139      3661.9158    
     96000   673.30474     -174216.08      28176.182      3884.4469    
     97000   673.13306     -174384.63      28168.998      3469.7134    
     98000   669.54871     -174410.61      28019.002      2617.3947    
     99000   667.16458     -174485.42      27919.231      2378.3589    
    100000   670.62226     -174805.94      28063.927      2885.4946    
    101000   667.75928     -174862.74      27944.118      3893.3873    
    102000   667.04621     -175008.47      27914.278      4112.5937    
    103000   667.06368     -175185.33      27915.009      3426.3394    
    104000   662.359       -175164.2       27718.13       2615.962     
    105000   660.31489     -175253.62      27632.588      2680.1332    
    106000   659.37473     -175389.64      27593.245      3426.9557    
    107000   657.35424     -175480.13      27508.692      3855.8881    
    108000   654.78067     -175547.01      27400.995      3394.5194    
    109000   653.87964     -175682.5       27363.289      2370.6441    
    110000   650.14209     -175700.48      27206.881      1909.5579    
    111000   649.50997     -175846.56      27180.428      2253.3653    
    112000   646.75911     -175904.32      27065.312      2885.1911    
    113000   641.60128     -175859.86      26849.469      3005.9921    
    114000   640.51104     -175984.93      26803.845      2573.5891    
    115000   638.17129     -176057.85      26705.932      2197.4       
    116000   635.69048     -176124.2       26602.116      2291.5449    
    117000   636.74922     -176337.86      26646.422      2664.4242    
    118000   635.87446     -176471.47      26609.815      3136.8811    
    119000   633.82993     -176555.7       26524.256      3323.8038    
    120000   632.73058     -176678.25      26478.251      3069.1452    
    121000   630.30879     -176745.57      26376.905      2833.8601    
    122000   627.73319     -176806.24      26269.123      2768.7363    
    123000   627.34473     -176957.31      26252.866      2751.1966    
    124000   624.50805     -177006.49      26134.158      2942.1659    
    125000   623.54348     -177133.48      26093.793      2690.4506    
    126000   622.2945      -177248.26      26041.526      2057.9838    
    127000   616.91822     -177189.15      25816.542      1615.8865    
    128000   614.68953     -177260.83      25723.277      1692.4229    
    129000   611.48584     -177290.86      25589.21       2264.4479    
    130000   607.90883     -177304.19      25439.521      2558.7606    
    131000   605.54415     -177367.31      25340.565      2228.2339    
    132000   604.17983     -177470.78      25283.471      1712.5871    
    133000   603.97341     -177622.88      25274.833      1550.2499    
    134000   603.33182     -177756.28      25247.984      1997.672     
    135000   600.74137     -177808.39      25139.58       2415.2382    
    136000   597.61172     -177836.46      25008.612      2342.7169    
    137000   595.91716     -177924.47      24937.698      1858.1852    
    138000   596.83091     -177994.99      24975.937      1570.9885    
    139000   597.16487     -178168.17      24989.912      1827.1033    
    140000   596.78519     -178310.91      24974.023      2318.8764    
    141000   595.07532     -178398.38      24902.469      2624.7124    
    142000   590.92997     -178382.46      24728.996      2612.5639    
    143000   587.90842     -178413.05      24602.552      2388.8791    
    144000   586.91154     -178528.42      24560.835      2409.96      
    145000   584.99552     -178604.19      24480.654      2578.2756    
    146000   583.24789     -178685.82      24407.52       2728.8964    
    147000   579.42409     -178679.45      24247.503      2946.9237    
    148000   575.57855     -178670.55      24086.576      2857.1008    
    149000   573.22937     -178724.44      23988.269      2512.4088    
    150000   571.60202     -178789.72      23920.168      2036.9451    
    151000   571.23379     -178924.72      23904.759      1880.6878    
    152000   570.62006     -179049.67      23879.076      2037.9637    
    153000   569.01282     -179132.31      23811.817      2265.4901    
    154000   567.25824     -179208.55      23738.392      2324.6321    
    155000   564.68979     -179249.89      23630.908      2114.6786    
    156000   564.36392     -179346.53      23617.271      1927.1117    
    157000   563.09104     -179441.29      23564.004      2108.3401    
    158000   564.24698     -179637.65      23612.378      2360.6103    
    159000   561.4158      -179666.85      23493.899      2479.4363    
    160000   560.87739     -179791.43      23471.368      2392.4173    
    161000   559.08449     -179863.46      23396.34       2342.5176    
    162000   557.97127     -179963.59      23349.754      2416.2554    
    163000   559.15026     -180159.39      23399.092      2504.0573    
    164000   555.54998     -180154.27      23248.429      2638.9131    
    165000   553.77182     -180224.71      23174.017      2616.4818    
    166000   552.57595     -180318.82      23123.973      2335.1175    
    167000   552.07704     -180441.67      23103.095      1995.0222    
    168000   551.58649     -180565.11      23082.567      1871.3472    
    169000   549.20126     -180609.04      22982.75       2057.4232    
    170000   546.98499     -180658.93      22890.005      2225.981     
    171000   546.17243     -180767.37      22856.001      2162.6433    
    172000   545.78664     -180893.02      22839.857      1756.0218    
    173000   542.0692      -180879.51      22684.291      1335.3687    
    174000   538.79717     -180882.61      22547.364      1197.6941    
    175000   535.1676      -180870.39      22395.476      1510.8867    
    176000   531.53405     -180856.25      22243.42       1983.0865    
    177000   531.96391     -181011.37      22261.409      2112.0471    
    178000   529.51697     -181045.9       22159.01       1976.3599    
    179000   527.28579     -181089.15      22065.641      1849.2725    
    180000   524.86257     -181122.71      21964.235      1917.788     
    181000   522.94632     -181176.25      21884.045      2086.9162    
    182000   522.41111     -181287.4       21861.647      2229.6364    
    183000   522.8321      -181437.38      21879.265      2186.1681    
    184000   523.06252     -181580.01      21888.907      1743.3498    
    185000   521.6461      -181653.25      21829.633      1400.899     
    186000   519.50782     -181696.21      21740.151      1545.4463    
    187000   516.83001     -181715.25      21628.091      1957.5124    
    188000   516.65044     -181838.47      21620.577      2135.8073    
    189000   515.80521     -181933.95      21585.206      1981.4882    
    190000   514.28026     -182000.55      21521.39       1824.2085    
    191000   514.25594     -182129.12      21520.373      1614.656     
    192000   513.62285     -182232.64      21493.879      1916.744     
    193000   511.18194     -182259.92      21391.733      2470.2832    
    194000   508.09455     -182258.85      21262.533      2794.0221    
    195000   505.74147     -182287.77      21164.063      2537.8429    
    196000   501.84915     -182251.24      21001.179      2042.8444    
    197000   500.29964     -182312.12      20936.335      1940.0538    
    198000   499.69071     -182409.73      20910.853      2103.2624    
    199000   497.53287     -182443.18      20820.553      2450.177     
    200000   495.60306     -182485.82      20739.795      2606.497     
    201000   493.00871     -182499.94      20631.227      2484.2086    
    202000   490.48576     -182515.99      20525.648      2340.0145    
    203000   489.73638     -182605.42      20494.288      2312.9951    
    204000   488.0956      -182656.76      20425.626      2401.3301    
    205000   485.9164      -182684.98      20334.432      2463.6458    
    206000   486.6694      -182835.15      20365.943      2346.3091    
    207000   485.55898     -182907.88      20319.474      2194.988     
    208000   484.49745     -182982.27      20275.052      2261.6813    
    209000   483.87518     -183074.61      20249.011      2429.3155    
    210000   481.47643     -183092.03      20148.629      2422.6466    
    211000   480.6944      -183176.29      20115.903      2291.2421    
    212000   478.41381     -183197.32      20020.466      2064.69      
    213000   475.74008     -183200.97      19908.577      1855.2085    
    214000   474.52363     -183265.05      19857.671      1750.7285    
    215000   473.23527     -183325.58      19803.757      1884.6715    
    216000   471.80016     -183379.01      19743.701      2062.4373    
    217000   470.53222     -183439.43      19690.64       2025.2211    
    218000   467.69206     -183432.8       19571.787      1664.7402    
    219000   465.84623     -183467.06      19494.543      1332.4295    
    220000   466.46374     -183603.73      19520.385      1350.6234    
    221000   465.51857     -183675.41      19480.831      1902.7615    
    222000   464.09212     -183725.56      19421.138      2243.838     
    223000   463.34466     -183803.87      19389.858      2183.415     
    224000   461.12536     -183819.84      19296.986      1946.2532    
    225000   460.54699     -183904.76      19272.783      1799.8987    
    226000   460.4744      -184009.57      19269.745      1830.1915    
    227000   458.94516     -184053.02      19205.75       2112.78      
    228000   456.51111     -184058.8       19103.891      2114.2045    
    229000   453.99585     -184059.84      18998.633      1687.4068    
    230000   451.7276      -184070.92      18903.712      1243.1915    
    231000   451.29162     -184157.51      18885.468      1096.6166    
    232000   450.82636     -184242.69      18865.998      1208.1931    
    233000   448.85518     -184264.49      18783.508      1238.2751    
    234000   447.13678     -184295.97      18711.597      1175.4729    
    235000   444.46112     -184286.82      18599.628      1142.6957    
    236000   442.98776     -184326.76      18537.971      1238.2351    
    237000   443.10558     -184432.93      18542.902      1531.8143    
    238000   442.86359     -184523.03      18532.775      1899.8925    
    239000   442.05971     -184589.68      18499.134      2170.0799    
    240000   440.98893     -184645.15      18454.325      2122.903     
    241000   438.48534     -184640.23      18349.556      1938.2816    
    242000   436.63201     -184661.99      18271.998      1825.5222    
    243000   435.57995     -184715.89      18227.972      1786.6195    
    244000   433.79304     -184738.69      18153.194      1799.6832    
    245000   432.91119     -184799.12      18116.291      1843.5751    
    246000   432.10783     -184862.3       18082.672      1853.9851    
    247000   431.28784     -184924.24      18048.358      1716.9419    
    248000   432.11293     -185054.98      18082.886      1535.9969    
    249000   431.61476     -185129.79      18062.039      1596.1149    
    250000   429.08304     -185119.65      17956.092      1893.6347    
    251000   427.04639     -185129.13      17870.863      1940.7798    
    252000   424.13801     -185101.23      17749.155      1947.9237    
    253000   422.16539     -185111.55      17666.605      1785.2494    
    254000   422.06334     -185199.65      17662.335      1813.665     
    255000   420.91617     -185243.6       17614.328      1933.8484    
    256000   417.75963     -185203.27      17482.235      1923.1909    
    257000   416.35354     -185234.94      17423.393      1627.7936    
    258000   415.02752     -185269.67      17367.902      1328.9132    
    259000   414.50404     -185337.22      17345.996      1186.9329    
    260000   414.83305     -185440.12      17359.764      1285.4101    
    261000   413.1985      -185459.99      17291.362      1403.4279    
    262000   410.9975      -185456.49      17199.256      1384.9922    
    263000   409.37375     -185475.59      17131.306      1268.5146    
    264000   408.43364     -185523.5       17091.964      1186.6644    
    265000   408.42843     -185609.46      17091.746      1207.0555    
    266000   408.52164     -185699.12      17095.647      1296.7211    
    267000   407.84536     -185756.5       17067.346      1444.6627    
    268000   407.71424     -185836.21      17061.859      1589.5047    
    269000   405.61326     -185833.17      16973.938      1751.7353    
    270000   404.28167     -185861.53      16918.215      1738.1385    
    271000   403.71087     -185914.69      16894.328      1518.8426    
    272000   402.04266     -185929.13      16824.517      1307.0318    
    273000   402.13868     -186015.91      16828.535      1201.2349    
    274000   401.92082     -186089.35      16819.419      1162.4194    
    275000   401.16133     -186140.23      16787.636      1046.8515    
    276000   400.82846     -186208.78      16773.706      897.0947     
    277000   400.69947     -186285.89      16768.308      811.68684    
    278000   397.89388     -186250.74      16650.901      892.66672    
    279000   396.10773     -186257.35      16576.155      982.66749    
    280000   393.99064     -186249.04      16487.56       904.44667    
    281000   391.36882     -186219.11      16377.843      835.05774    
    282000   391.58361     -186307.34      16386.831      838.42478    
    283000   391.23035     -186371.67      16372.048      880.91555    
    284000   390.07745     -186401.4       16323.802      860.02459    
    285000   387.94934     -186389.79      16234.746      736.37992    
    286000   385.37122     -186359.02      16126.858      632.67054    
    287000   382.93474     -186334.01      16024.897      543.12678    
    288000   382.89953     -186407.78      16023.423      561.39537    
    289000   383.83616     -186500.86      16062.619      495.8632     
    290000   383.68827     -186570.23      16056.43       406.34899    
    291000   384.50888     -186679.55      16090.771      453.90419    
    292000   384.08958     -186736.47      16073.224      604.08902    
    293000   383.97556     -186806.45      16068.453      704.93586    
    294000   384.57921     -186906.22      16093.714      651.96086    
    295000   382.06803     -186875.03      15988.627      724.80959    
    296000   380.82968     -186896.6       15936.805      1020.4113    
    297000   379.14645     -186899.29      15866.366      1296.3906    
    298000   378.90137     -186962.04      15856.11       1383.213     
    299000   377.01009     -186955.64      15776.964      1337.0502    
    300000   375.7056      -186973.01      15722.375      1191.9721    
    301000   376.19716     -187065.02      15742.945      1133.7996    
    302000   375.63073     -187112.6       15719.242      1339.9413    
    303000   374.67885     -187143.12      15679.408      1503.1922    
    304000   373.72114     -187173.34      15639.33       1390.4819    
    305000   373.41468     -187230.76      15626.505      1232.6078    
    306000   372.63235     -187268.37      15593.767      1327.2734    
    307000   371.85224     -187305.1       15561.121      1432.4008    
    308000   370.29452     -187309.27      15495.934      1532.2129    
    309000   368.78779     -187315.11      15432.881      1544.9811    
    310000   369.20178     -187400.37      15450.205      1417.5341    
    311000   368.48165     -187438.34      15420.07       1341.8393    
    312000   368.12591     -187490.78      15405.183      1148.2512    
    313000   367.40583     -187528.04      15375.049      1009.071     
    314000   367.01527     -187578.28      15358.706      995.40675    
    315000   366.23371     -187612.19      15325.999      994.56668    
    316000   364.36046     -187600.09      15247.608      902.25059    
    317000   363.55476     -187632.28      15213.891      727.05261    
    318000   362.31016     -187645.72      15161.808      575.75364    
    319000   363.05571     -187742.55      15193.007      601.68609    
    320000   362.91142     -187801.43      15186.969      839.15626    
    321000   362.13921     -187834.16      15154.654      1191.5816    
    322000   361.82721     -187885.92      15141.597      1247.1264    
    323000   360.32402     -187886.74      15078.692      1051.0825    
    324000   358.53276     -187875.09      15003.733      956.54209    
    325000   356.75736     -187864.44      14929.437      797.71985    
    326000   356.27698     -187906.84      14909.334      632.05253    
    327000   355.63171     -187942.36      14882.331      380.01432    
    328000   356.01648     -188020.25      14898.432      155.62728    
    329000   355.94296     -188078.59      14895.356      221.18665    
    330000   354.98921     -188100.32      14855.444      500.86668    
    331000   355.78578     -188195.11      14888.778      601.97293    
    332000   354.59979     -188206.76      14839.148      662.86637    
    333000   353.79326     -188234         14805.396      713.88441    
    334000   353.87543     -188297.92      14808.835      835.46242    
    335000   353.90914     -188359.34      14810.245      1037.4562    
    336000   354.46886     -188443.1       14833.668      1054.5103    
    337000   352.027       -188401.24      14731.482      822.54323    
    338000   350.94957     -188415.14      14686.395      538.7821     
    339000   349.66705     -188420.39      14632.724      234.70609    
    340000   348.69178     -188437.59      14591.912     -44.983417    
    341000   347.2774      -188436.92      14532.723     -229.94789    
    342000   345.6222      -188425.2       14463.457     -199.86849    
    343000   344.76048     -188446.1       14427.396      13.518471    
    344000   343.88347     -188466.09      14390.695      343.26478    
    345000   343.29176     -188498.01      14365.934      533.32584    
    346000   342.92563     -188538.81      14350.612      792.64781    
    347000   343.49741     -188618.26      14374.54       957.80232    
    348000   344.32639     -188708.03      14409.23       1166.5534    
    349000   345.20684     -188799.94      14446.075      1311.1911    
    350000   345.37204     -188862.17      14452.988      1143.4241    
    351000   342.70518     -188805.76      14341.387      828.22603    
    352000   341.39148     -188805.46      14286.412      711.70378    
    353000   342.90745     -188923.2       14349.851      855.42655    
    354000   343.5831      -189005.59      14378.125      959.83058    
    355000   344.16327     -189084.38      14402.404      869.38799    
    356000   343.72        -189120.49      14383.854      675.18417    
    357000   342.87157     -189139.73      14348.35       609.49922    
    358000   342.05503     -189159.39      14314.179      649.4154     
    359000   340.49073     -189147.14      14248.717      819.1344     
    360000   340.43979     -189197.83      14246.585      931.5039     
    361000   340.33836     -189246.83      14242.341      987.60391    
    362000   339.96934     -189283.82      14226.898      1106.493     
    363000   338.92448     -189292.59      14183.173      1300.4968    
    364000   338.5135      -189328.15      14165.975      1358.77      
    365000   338.08257     -189362.14      14147.941      1285.7018    
    366000   337.32898     -189382.91      14116.406      1269.1101    
    367000   337.22744     -189429.7       14112.157      1237.0659    
    368000   335.97187     -189428.38      14059.614      1156.3158    
    369000   335.05154     -189441.32      14021.1        1003.6103    
    370000   334.67298     -189475.73      14005.258      798.36477    
    371000   334.4911      -189518.34      13997.647      667.54688    
    372000   332.92696     -189502.9       13932.192      635.13354    
    373000   331.68683     -189500.87      13880.295      531.4201     
    374000   330.95347     -189519.5       13849.606      357.22314    
    375000   329.74298     -189517.96      13798.95       256.32636    
    376000   329.53119     -189557.87      13790.087      299.95616    
    377000   329.04227     -189585.3       13769.627      371.63592    
    378000   329.19077     -189639.1       13775.841      291.21277    
    379000   329.24346     -189688.96      13778.046      141.18128    
    380000   328.28708     -189696.9       13738.024      79.572025    
    381000   327.21942     -189698.75      13693.345      173.59634    
    382000   326.19159     -189702.14      13650.333      216.18997    
    383000   326.16055     -189747.16      13649.034      114.08057    
    384000   326.73789     -189817.28      13673.194      32.224096    
    385000   328.13861     -189922.18      13731.811      10.809903    
    386000   328.90724     -190000.28      13763.976     -21.575398    
    387000   328.60986     -190033.76      13751.531      54.397897    
    388000   327.85766     -190048.28      13720.054      196.26917    
    389000   327.10977     -190062.13      13688.756      179.79231    
    390000   327.0254      -190103.81      13685.226      84.403571    
    391000   324.69617     -190051.53      13587.753      5.6260968    
    392000   323.48711     -190045.17      13537.156     -36.141426    
    393000   322.9604      -190066.5       13515.115     -5.6119128    
    394000   321.24913     -190038.76      13443.503      134.12609    
    395000   321.16271     -190078.57      13439.886      193.60307    
    396000   321.07709     -190118.03      13436.303      147.55522    
    397000   321.31949     -190171.29      13446.447      86.942668    
    398000   320.63286     -190184.87      13417.713      48.659642    
    399000   319.42266     -190176.16      13367.069      104.34524    
    400000   319.35081     -190196.75      13364.062      308.21007    
    401000   319.75056     -190255.38      13380.791      453.38917    
    402000   321.00801     -190349.34      13433.412      558.36756    
    403000   320.76035     -190380.67      13423.048      638.84919    
    404000   321.12138     -190436.82      13438.157      694.97053    
    405000   321.05541     -190475.06      13435.396      673.68204    
    406000   320.50063     -190493.11      13412.18       621.76791    
    407000   319.57382     -190495.24      13373.395      476.48381    
    408000   317.60323     -190453.23      13290.93       546.02926    
    409000   317.46568     -190487.77      13285.174      479.86263    
    410000   317.27858     -190519.9       13277.345      315.09043    
    411000   316.69914     -190535.49      13253.096      147.57145    
    412000   315.63798     -190530.44      13208.689     -28.078292    
    413000   315.15618     -190549.65      13188.527     -157.1499     
    414000   315.17119     -190588.89      13189.155     -148.94291    
    415000   314.95859     -190618.66      13180.259     -146.68077    
    416000   314.22369     -190626.22      13149.505     -53.341169    
    417000   313.58682     -190637.04      13122.853     -4.2234576    
    418000   314.43735     -190710.86      13158.446     -167.93369    
    419000   314.36904     -190745.2       13155.587     -308.63726    
    420000   314.73617     -190798.44      13170.951     -474.84213    
    421000   314.97924     -190845.91      13181.123     -409.69218    
    422000   314.45917     -190861.4       13159.359     -262.01381    
    423000   314.34526     -190893.36      13154.592     -122.59411    
    424000   312.99238     -190873.33      13097.977     -94.684474    
    425000   313.88644     -190832.05      13135.392     -191.6492     
    426000   312.69766     -190818.72      13085.644     -214.09816    
    427000   311.56942     -190807.62      13038.43      -39.207868    
    428000   310.02485     -190779.1       12973.794     -48.734575    
    429000   309.62585     -190797.57      12957.096     -18.520209    
    430000   309.62507     -190832.83      12957.064      24.384876    
    431000   309.85896     -190877.11      12966.851      17.549814    
    432000   311.19732     -190967.86      13022.858      47.217894    
    433000   310.93671     -190991.75      13011.953      71.495086    
    434000   310.53998     -190961.88      12995.351      54.110223    
    435000   309.5344      -190954.4       12953.27      -40.279019    
    436000   308.75104     -190954.89      12920.488     -172.7601     
    437000   308.92768     -190995.23      12927.88      -439.12211    
    438000   310.061       -191075.37      12975.306     -640.75884    
    439000   308.87936     -191058.74      12925.857     -659.33488    
    440000   307.15394     -191019.22      12853.653     -557.52661    
    441000   306.14113     -191009.62      12811.269     -378.66776    
    442000   305.02701     -190994.92      12764.646     -241.55824    
    443000   306.41496     -191084.59      12822.728     -377.60009    
    444000   307.20523     -191149.65      12855.799     -324.67628    
    445000   305.38331     -191104.93      12779.556     -150.82894    
    446000   304.62266     -191104.56      12747.725      20.990438    
    447000   304.07531     -191111.86      12724.82       131.07513    
    448000   303.91551     -191135.72      12718.132      166.26339    
    449000   304.73551     -191200.54      12752.447      91.022611    
    450000   304.73034     -191230.52      12752.231     -38.389736    
    451000   304.04881     -191231.84      12723.711     -300.80248    
    452000   304.51504     -191281.4       12743.221     -543.32507    
    453000   304.18607     -191296.85      12729.455     -552.56028    
    454000   304.19185     -191326.25      12729.696     -532.74416    
    455000   305.62304     -191415.38      12789.588     -448.90234    
    456000   305.09725     -191422.57      12767.585     -484.95343    
    457000   304.65797     -191432.86      12749.203     -579.70625    
    458000   304.46296     -191453.27      12741.042     -562.67792    
    459000   303.54412     -191442.98      12702.591     -349.88839    
    460000   303.46456     -191467.64      12699.261     -79.26368     
    461000   304.16955     -191525.29      12728.763     -63.712416    
    462000   304.21108     -191555.39      12730.501     -293.21244    
    463000   303.02555     -191533.44      12680.889     -331.52605    
    464000   303.32393     -191573.01      12693.376     -293.14628    
    465000   302.6798      -191573.76      12666.421     -292.3728     
    466000   301.83982     -191565.73      12631.27      -325.3409     
    467000   300.81649     -191549.14      12588.446     -480.88496    
    468000   299.0865      -191502.53      12516.05      -486.87208    
    469000   298.94857     -191522.25      12510.278     -335.73976    
    470000   298.71437     -191538.55      12500.477     -160.82419    
    471000   297.79294     -191525.25      12461.918     -132.4925     
    472000   298.44545     -191577.52      12489.224     -232.28749    
    473000   297.28328     -191553.11      12440.589     -184.18048    
    474000   297.45992     -191584.27      12447.981     -79.839694    
    475000   298.68844     -191659.87      12499.392      137.80499    
    476000   299.39335     -191713.6       12528.891      313.82568    
    477000   299.607       -191745.84      12537.832      367.73438    
    478000   299.27312     -191755.41      12523.859      481.91858    
    479000   299.39649     -191783.88      12529.022      465.32748    
    480000   299.29059     -191802.42      12524.59       299.28446    
    481000   300.49913     -191875.97      12575.165      176.11924    
    482000   300.17769     -191885.37      12561.713      146.78782    
    483000   298.71649     -191846.67      12500.566      167.92935    
    484000   298.05404     -191841.38      12472.844      112.44705    
    485000   297.51475     -191840.82      12450.276      102.37756    
    486000   298.45648     -191901.95      12489.685      194.34759    
    487000   299.58015     -191970.55      12536.708      255.25759    
    488000   298.49263     -191946.4       12491.198      364.70648    
    489000   296.86169     -191899.75      12422.947      261.44195    
    490000   296.57721     -191908.57      12411.042      55.130603    
    491000   297.69031     -191975.64      12457.623      47.67202     
    492000   299.17824     -192058.49      12519.889      202.03271    
    493000   300.1478      -192119.55      12560.463      444.43779    
    494000   298.28755     -192062.07      12482.616      545.19844    
    495000   297.51064     -192049.64      12450.104      262.12847    
    496000   296.6485      -192033.41      12414.025      95.035127    
    497000   295.78396     -192016.97      12377.846      66.052959    
    498000   296.77297     -192077.66      12419.234      9.9829883    
    499000   297.31455     -192119.28      12441.898     -65.27093     
    500000   296.16983     -192090.73      12393.994     -89.524037    
    501000   295.7613      -192091.88      12376.898      30.010998    
    502000   296.16202     -192127.67      12393.667      172.25685    
    503000   296.51402     -192160.94      12408.398      209.72605    
    504000   296.36296     -192173.24      12402.076      116.17008    
    505000   295.81836     -192168.22      12379.286      17.474296    
    506000   295.09577     -192155.83      12349.048      6.2519819    
    507000   295.82184     -192203.99      12379.432     -20.478811    
    508000   295.28508     -192198.63      12356.969     -148.46032    
    509000   294.96034     -192201.35      12343.38      -329.71219    
    510000   294.15572     -192183.82      12309.709     -303.64422    
    511000   293.71034     -192181.25      12291.071     -172.75968    
    512000   293.35636     -192182.96      12276.257     -206.12435    
    513000   291.60482     -192125.52      12202.96      -345.24308    
    514000   292.03502     -192158.63      12220.962     -500.07444    
    515000   293.21139     -192222.93      12270.191     -427.07748    
    516000   294.07522     -192273.82      12306.34      -162.36896    
    517000   293.63381     -192270.22      12287.868     -46.238277    
    518000   292.33642     -192230.68      12233.575     -184.61423    
    519000   291.41368     -192205.98      12194.961     -322.1239     
    520000   291.23946     -192212.29      12187.67      -279.15447    
    521000   291.55638     -192238.74      12200.933     -188.02316    
    522000   291.97803     -192269.63      12218.577     -228.42983    
    523000   292.8852      -192320.39      12256.54      -475.38251    
    524000   292.82805     -192330.44      12254.149     -585.15506    
    525000   292.63968     -192334.97      12246.266     -435.79905    
    526000   292.5211      -192342.31      12241.304     -296.81139    
    527000   292.63776     -192358.49      12246.186     -255.03374    
    528000   293.75276     -192416.63      12292.846     -318.27212    
    529000   294.17928     -192445.43      12310.695     -411.06946    
    530000   294.69046     -192477.65      12332.086     -548.84336    
    531000   294.35546     -192474.57      12318.067     -578.55443    
    532000   293.98682     -192470.27      12302.64      -556.42123    
    533000   293.54857     -192462.73      12284.301     -458.57954    
    534000   294.03432     -192492.8       12304.629     -321.21963    
    535000   294.03172     -192502.32      12304.519     -228.71508    
    536000   294.93906     -192549.77      12342.49      -212.28971    
    537000   295.16812     -192569.25      12352.075     -236.09772    
    538000   294.29206     -192542.16      12315.414     -110.64919    
    539000   294.39133     -192555.42      12319.568      63.207695    
    540000   294.31958     -192561.48      12316.566      140.26622    
    541000   296.14776     -192646.77      12393.071      70.245909    
    542000   297.56865     -192686.54      12452.531      69.536838    
    543000   296.38515     -192645.77      12403.005      204.6972     
    544000   295.17121     -192603.36      12352.205      366.11427    
    545000   293.92706     -192559.33      12300.14       313.54052    
    546000   293.47982     -192548.95      12281.424      156.45784    
    547000   294.52096     -192600.1       12324.993     -42.344777    
    548000   294.77443     -192618.55      12335.6       -39.427194    
    549000   295.32188     -192648.91      12358.51       173.08287    
    550000   295.38184     -192659.32      12361.019      400.62447    
    551000   294.57369     -192632.95      12327.2        494.31881    
    552000   294.65824     -192643.29      12330.738      427.21782    
    553000   295.15678     -192671.38      12351.601      378.68051    
    554000   294.39845     -192646.24      12319.866      321.70175    
    555000   294.19745     -192644.28      12311.455      394.56387    
    556000   293.70098     -192629.5       12290.679      518.88225    
    557000   293.08091     -192609.41      12264.73       603.13597    
    558000   293.80745     -192645.6       12295.134      530.05814    
    559000   294.2342      -192668.77      12312.993      422.47899    
    560000   293.50616     -192643.84      12282.526      385.81442    
    561000   292.95735     -192626.57      12259.56       431.17952    
    562000   293.84663     -192668.47      12296.774      475.17683    
    563000   294.96581     -192720.04      12343.609      486.54849    
    564000   295.73207     -192756.73      12375.675      497.0409     
    565000   294.53119     -192711.07      12325.421      492.68645    
    566000   293.4011      -192668.39      12278.129      502.6869     
    567000   292.948       -192652.76      12259.168      578.5539     
    568000   293.16714     -192666.12      12268.339      645.07165    
    569000   293.73605     -192693.71      12292.146      666.93387    
    570000   293.82657     -192701.15      12295.934      580.71003    
    571000   292.8647      -192664.82      12255.683      491.59273    
    572000   291.93817     -192629.38      12216.91       396.22811    
    573000   292.34653     -192649.03      12233.998      288.22311    
    574000   292.79776     -192670.48      12252.881      128.58342    
    575000   294.15747     -192729.8       12309.782     -58.21819     
    576000   294.40138     -192742.23      12319.989     -72.961118    
    577000   292.79268     -192676.53      12252.669     -61.147892    
    578000   291.90887     -192640.98      12215.683     -88.036504    
    579000   292.26157     -192656.91      12230.443     -8.8368035    
    580000   294.10323     -192735.16      12307.512     -74.92915     
    581000   295.01714     -192773.9       12345.757     -246.87019    
    582000   293.66014     -192718.04      12288.97      -404.58709    
    583000   293.02148     -192691.92      12262.244     -542.90315    
    584000   293.4023      -192708.46      12278.18      -601.61849    
    585000   293.8774      -192728.56      12298.062     -533.10981    
    586000   294.0997      -192738.28      12307.364     -446.13207    
    587000   293.23912     -192701.65      12271.351     -594.33272    
    588000   292.53875     -192671.52      12242.042     -926.82952    
    589000   291.94482     -192646.16      12217.188     -1047.3774    
    590000   290.89727     -192601.14      12173.35      -1060.1423    
    591000   290.27609     -192573.87      12147.356     -960.1462     
    592000   290.31096     -192573.39      12148.815     -953.74478    
    593000   290.22247     -192568.01      12145.112     -947.31976    
    594000   290.08577     -192560.61      12139.391     -947.65761    
    595000   291.11138     -192601.29      12182.31      -870.58917    
    596000   291.78131     -192626.25      12210.345     -812.24491    
    597000   291.88776     -192627.81      12214.8       -839.13917    
    598000   291.36607     -192602.12      12192.969     -881.35117    
    599000   290.39296     -192557.77      12152.246     -812.76584    
    600000   290.58142     -192562.2       12160.133     -586.00918    
WARNING: Bond/angle/dihedral extent > half of periodic box length (src/domain.cpp:940)
Loop time of 35137.7 on 8 procs for 600000 steps with 14040 atoms

Performance: 0.003 ns/day, 8133.726 hours/ns, 17.076 timesteps/s, 239.743 katom-step/s
82.8% CPU use with 8 MPI tasks x 1 OpenMP threads

MPI task timing breakdown:
Section |  min time  |  avg time  |  max time  |%varavg| %total
---------------------------------------------------------------
Pair    | 8495.8     | 15105      | 25241      |4780.3 | 42.99
Bond    | 1631.2     | 2947       | 4742       |2205.3 |  8.39
Kspace  | 4102.5     | 15839      | 23632      |5498.9 | 45.08
Neigh   | 17.919     | 17.951     | 17.974     |   0.5 |  0.05
Comm    | 695.82     | 826.53     | 913.79     | 282.8 |  2.35
Output  | 0.13224    | 0.15159    | 0.16441    |   2.6 |  0.00
Modify  | 188.18     | 259.61     | 307.62     | 281.5 |  0.74
Other   |            | 142.5      |            |       |  0.41

Nlocal:           1755 ave        2017 max        1482 min
Histogram: 1 0 1 0 2 1 1 1 0 1
Nghost:        13794.4 ave       14051 max       13502 min
Histogram: 1 0 0 2 0 1 2 1 0 1
Neighs:              0 ave           0 max           0 min
Histogram: 8 0 0 0 0 0 0 0 0 0

Total # of neighbors = 0
Ave neighs/atom = 0
Ave special neighs/atom = 12.012821
Neighbor list builds = 104
Dangerous builds = 0
unfix                             1
reset_timestep 0

#2nd equilibration run
compute                    KE all ke/atom
variable   temp atom c_KE/1.5
fix                               1 all nve
compute        layers all chunk/atom bin/1d z lower 0.05 units reduced
fix              2 all ave/chunk 10 100 1000 layers v_temp file profile.mp
fix                                3 all thermal/conductivity 10 z 20
variable        tdiff equal f_2[11][3]-f_2[1][3]
thermo_style               custom step temp epair etotal f_3 v_tdiff
thermo                        1000
run                               500000
PPPM initialization ...
  using 12-bit tables for long-range coulomb (src/kspace.cpp:342)
  G vector (1/distance) = 0.15837073
  grid = 15 15 15
  stencil order = 5
  estimated absolute RMS force accuracy = 0.028006063
  estimated relative force accuracy = 8.4339426e-05
  using double precision FFTW3
  3d grid and FFT values/proc = 2197 512
WARNING: Using a manybody potential with bonds/angles/dihedrals and special_bond exclusions (src/pair.cpp:245)
WARNING: Inconsistent image flags (src/domain.cpp:819)
WARNING: Bond/angle/dihedral extent > half of periodic box length (src/domain.cpp:940)
Per MPI rank memory allocation (min/avg/max) = 30.73 | 35.78 | 41.41 Mbytes
   Step          Temp          E_pair         TotEng          f_3          v_tdiff    
         0   290.58142     -200967.79     -180402.07      0              0            
      1000   290.6295      -200917.06     -180401.83      135.28565      0.23284573   
      2000   290.05773     -200905.97     -180402.08      200.86019      0.35477653   
      3000   288.69801     -200910.67     -180400.58      257.07581      0.43327865   
      4000   287.61639     -200927        -180400.5       298.98363      0.46247799   
      5000   286.82422     -200947.75     -180400.55      339.1619       0.50634115   
      6000   287.10366     -200976.16     -180399.91      379.94921      0.54991322   
      7000   288.77589     -201021.13     -180354.39      408.07731      0.59133441   
      8000   288.85862     -201049.32     -180354.24      438.95844      0.61081234   
      9000   288.40748     -201057.66     -180354.19      462.24304      0.61752824   
     10000   288.15366     -201088.04     -180354.19      493.29104      0.63080604   
     11000   288.86541     -201160.4      -180353.86      528.45029      0.65833027   
     12000   289.74502     -201237.31     -180354.37      556.39917      0.66489669   
     13000   290.5001      -201247.3      -180354.11      577.96133      0.68805036   
     14000   289.72815     -201161.98     -180354.21      604.65324      0.68940656   
     15000   288.70884     -201073.15     -180354.34      636.41124      0.68315026   
     16000   287.70186     -201056.86     -180354.56      653.01953      0.68854861   
     17000   287.58943     -201130.88     -180354.7       676.38555      0.68166209   
     18000   288.67219     -201248.1      -180354.53      695.85803      0.6984215    
     19000   289.61377     -201336.1      -180355.25      717.7545       0.72221313   
     20000   290.25417     -201352.51     -180355.14      741.23615      0.73424911   
     21000   290.31207     -201315.41     -180355.05      759.0283       0.74267002   
     22000   289.79453     -201283.05     -180354.77      781.22392      0.74059608   
     23000   289.68617     -201282.9      -180355.19      797.38881      0.72245218   
     24000   290.60203     -201304        -180355.37      818.75422      0.74415609   
     25000   290.85602     -201311.94     -180355.56      840.81613      0.78029309   
     26000   291.84495     -201304.55     -180355.14      857.426        0.77411167   
     27000   292.0409      -201292.46     -180354.82      875.55011      0.78581951   
     28000   292.00379     -201283.78     -180330.27      892.02128      0.79371007   
     29000   292.65094     -201273.17     -180292.54      915.40853      0.78258191   
     30000   292.48292     -201266.67     -180292.61      935.32475      0.79689711   
     31000   293.654       -201273.07     -180292.59      953.27457      0.82794332   
     32000   294.13306     -201264.02     -180292.45      967.2861       0.83392583   
     33000   293.64375     -201283.75     -180292.17      977.0791       0.84517776   
     34000   293.56086     -201339.46     -180292.9       994.55816      0.83981633   
     35000   293.77698     -201363.43     -180292.63      1010.0579      0.83478043   
     36000   294.43046     -201314.96     -180292.52      1027.0007      0.87775136   
     37000   295.20314     -201235.44     -180292.33      1044.4025      0.88395805   
     38000   295.97638     -201140.28     -180292.25      1057.8805      0.88359409   
     39000   292.97367     -201075.58     -180292.48      1070.8787      0.88623864   
     40000   292.36478     -201091.07     -180292.98      1086.4931      0.85736434   
     41000   293.02215     -201137.37     -180293.33      1098.7018      0.87222209   
     42000   293.48257     -201186.37     -180293.3       1111.4297      0.88366743   
     43000   295.12281     -201193.86     -180293.1       1125.8864      0.88464224   
     44000   294.58904     -201187.28     -180292.85      1139.1371      0.90305331   
     45000   293.08946     -201150.22     -180293.3       1156.5046      0.89050094   
     46000   293.18034     -201119.75     -180293.21      1168.339       0.89505573   
     47000   291.82764     -201107.02     -180293.87      1180.7753      0.91790548   
     48000   290.79745     -201111.45     -180293.61      1191.1487      0.90885924   
     49000   291.32934     -201145.88     -180293.39      1202.9517      0.89892444   
     50000   291.73996     -201212.29     -180293.43      1215.4843      0.89731086   
     51000   292.16164     -201253.93     -180292.89      1222.9904      0.89696717   
     52000   292.27149     -201238.22     -180285.14      1239.4166      0.90040474   
     53000   290.7736      -201165.73     -180285.01      1248.9111      0.91659305   
     54000   289.93503     -201097.54     -180284.7       1260.8109      0.909298     
     55000   290.92774     -201080.24     -180284.42      1273.4227      0.93358793   
     56000   290.37672     -201135.07     -180284.57      1281.8595      0.94552977   
     57000   291.67544     -201225.04     -180285.06      1294.8242      0.94474177   
     58000   293.34496     -201277.21     -180273.6       1317.0123      0.95937634   
     59000   292.44497     -201266.92     -180273.84      1329.4556      0.94423464   
     60000   293.00858     -201269.03     -180273.99      1336.9508      0.91160478   
     61000   294.45995     -201331.56     -180274.13      1350.4766      0.93517407   
     62000   294.70116     -201370.15     -180274.35      1361.3833      0.94577794   
     63000   294.22963     -201349.94     -180273.88      1371.0322      0.95596273   
     64000   294.54372     -201305.84     -180273.77      1383.0961      0.97714854   
     65000   295.26958     -201278.37     -180273.99      1394.5363      0.97452769   
     66000   295.4339      -201239.92     -180274.27      1407.0558      0.99016471   
     67000   294.77161     -201206.55     -180273.98      1415.9405      0.99436858   
     68000   295.54461     -201214.78     -180227.24      1464.8477      0.9861716    
     69000   296.96953     -201261.04     -180227.34      1473.7128      1.0160584    
     70000   297.59148     -201280.47     -180227.22      1483.5839      1.0137778    
     71000   297.29796     -201250.6      -180227.45      1496.3015      0.99146177   
     72000   296.86906     -201197.69     -180227.89      1504.3576      1.0016568    
     73000   296.50961     -201193.02     -180228.08      1517.4531      0.99089865   
     74000   297.52913     -201256.94     -180228.07      1527.2082      0.99954191   
     75000   296.39408     -201336.95     -180228.34      1543.099       1.0158141    
     76000   296.93533     -201408.99     -180227.88      1551.8358      0.99801228   
     77000   297.98347     -201493.69     -180228.26      1563.2451      1.0350892    
     78000   296.36666     -201489.76     -180227.57      1572.023       1.0463618    
     79000   296.02829     -201409.63     -180227.45      1579.9017      1.0288312    
     80000   294.93547     -201360.22     -180227.3       1589.4214      1.0268326    
     81000   295.17924     -201345.12     -180227.03      1598.8752      1.0066427    
     82000   295.33243     -201370.2      -180227.21      1608.3888      0.99739689   
     83000   294.46261     -201416.18     -180227.19      1614.3932      1.0195952    
     84000   293.60025     -201451.17     -180227         1627.4359      1.0186846    
     85000   293.07365     -201469.98     -180226.9       1638.9243      1.0349971    
     86000   293.76163     -201458.07     -180223.1       1649.3604      1.0414025    
     87000   294.47539     -201416.11     -180223.49      1656.6528      1.0397447    
     88000   294.46392     -201341.34     -180223.61      1664.4311      1.0254044    
     89000   293.27651     -201277.93     -180223.52      1673.6421      1.0125482    
     90000   293.34699     -201277.49     -180223.27      1684.644       1.0020542    
     91000   293.63043     -201328.67     -180223.26      1695.1689      0.97310459   
     92000   295.74141     -201364.85     -180218.88      1702.6176      0.98813082   
     93000   296.95164     -201386.6      -180218.66      1713.9239      0.99685704   
     94000   297.25        -201396.55     -180218.99      1723.3074      0.99514355   
     95000   298.24716     -201409.74     -180218.73      1731.2662      1.00328      
     96000   298.06022     -201413.39     -180218.94      1738.5389      1.0083548    
     97000   297.50227     -201386.58     -180219.35      1749.4339      0.99064798   
     98000   297.43965     -201353.78     -180219.14      1759.5353      0.99200501   
     99000   296.74857     -201335.9      -180175.01      1777.9227      0.98665231   
    100000   295.97777     -201336.43     -180175.03      1786.4204      0.98709055   
    101000   295.32263     -201345.22     -180174.8       1794.3797      1.0261877    
    102000   295.25106     -201373.54     -180174.83      1802.2995      1.0317761    
    103000   297.20337     -201386.43     -180175.22      1811.2817      1.0611551    
    104000   297.50404     -201375.28     -180175.17      1817.6583      1.0688092    
    105000   297.0779      -201372.36     -180157         1839.5077      1.0333045    
    106000   296.61018     -201373.42     -180157.21      1845.8218      1.0443465    
    107000   296.75644     -201384.02     -180157.15      1856.3701      1.0473988    
    108000   297.26901     -201413.21     -180157.09      1864.1049      1.0572008    
    109000   299.42499     -201456.82     -180157.64      1873.137       1.1024954    
    110000   300.38223     -201488.76     -180155.35      1884.7573      1.0988772    
    111000   300.35161     -201478.75     -180154.93      1892.6597      1.0978245    
    112000   299.58991     -201421.54     -180155.03      1899.7053      1.0818586    
    113000   299.01493     -201391.38     -180155.1       1910.3136      1.0705807    
    114000   298.82265     -201411.62     -180155.12      1917.5936      1.0781002    
    115000   298.81149     -201448.23     -180155.46      1927.3306      1.0696142    
    116000   298.11512     -201467.6      -180135.37      1949.451       1.056049     
    117000   296.59249     -201504.17     -180135.35      1956.7357      1.0485003    
    118000   297.60935     -201534.31     -180135.59      1963.9374      1.0593357    
    119000   298.31524     -201541.81     -180135.2       1971.8058      1.0698776    
    120000   298.42115     -201550.65     -180135.65      1979.5889      1.0738953    
    121000   298.15799     -201558.16     -180135.46      1990.1878      1.0604528    
    122000   295.8823      -201540.97     -180135.29      1995.3895      1.0574922    
    123000   295.83456     -201568.41     -180135.43      2001.1957      1.0506931    
    124000   298.07029     -201524.94     -180128.1       2011.9563      1.0758755    
    125000   297.81671     -201400.12     -180128.39      2018.1222      1.1206704    
    126000   297.83251     -201313.65     -180128.7       2026.2178      1.0970403    
    127000   299.19211     -201338.28     -180128.87      2033.076       1.1028217    
    128000   298.05603     -201429.26     -180128.83      2038.4291      1.1161594    
    129000   296.91652     -201495.16     -180128.9       2045.9449      1.1024496    
    130000   298.81616     -201501.11     -180087.37      2087.689       1.1407304    
    131000   298.33945     -201469.93     -180087.31      2095.9988      1.1701112    
    132000   299.69879     -201452.16     -180087.4       2103.495       1.1357632    
    133000   300.23253     -201455.74     -180087.67      2109.4212      1.1352009    
    134000   296.90803     -201481.52     -180087.72      2116.3959      1.1198322    
    135000   298.47619     -201517.75     -180074.06      2141.2161      1.0972753    
    136000   299.04079     -201529.03     -180074.59      2148.0594      1.1504151    
    137000   299.07639     -201541.19     -180062.56      2162.4578      1.1289032    
    138000   299.99193     -201568.77     -180062.52      2170.3197      1.1168612    
    139000   298.96484     -201568.88     -180062.57      2175.8335      1.1199111    
    140000   297.19462     -201531.49     -180062.77      2181.6241      1.1027551    
    141000   297.59103     -201492.03     -180062.6       2189.7753      1.105589     
    142000   298.5262      -201483.1      -180057.66      2200.6521      1.128945     
    143000   298.69026     -201525.01     -180057.43      2208.8236      1.1144071    
    144000   299.91857     -201598.2      -180057.5       2215.2908      1.1037078    
    145000   298.89346     -201630.48     -180057.55      2223.7121      1.1155074    
    146000   298.44893     -201579.87     -180057.74      2228.9066      1.114011     
    147000   299.59408     -201488.13     -180052.84      2241.9133      1.1368719    
    148000   298.9733      -201417.74     -180052.46      2249.1775      1.148102     
    149000   300.26128     -201400.48     -180052.26      2255.7443      1.118418     
    150000   300.8838      -201423.27     -180045.74      2268.7564      1.1215703    
    151000   301.4588      -201491.65     -180045.6       2275.4535      1.1197928    
    152000   301.97377     -201573.67     -180045.98      2281.8102      1.14771      
    153000   301.81499     -201660.57     -180045.46      2290.3189      1.1645423    
    154000   301.02965     -201754.61     -180045.31      2296.6927      1.1650787    
    155000   300.6967      -201790.9      -180045.58      2304.414       1.1562415    
    156000   301.13819     -201753.14     -180045.5       2310.0391      1.1617146    
    157000   300.41719     -201707.36     -180045.26      2316.208       1.1804526    
    158000   301.76076     -201730.3      -180043.88      2325.4964      1.1833774    
    159000   302.43525     -201804.28     -180043.89      2332.2992      1.1800549    
    160000   302.21047     -201870.68     -180044.46      2337.6076      1.1461361    
    161000   302.44829     -201868.86     -180044.75      2343.7564      1.1601814    
    162000   300.84158     -201790.96     -180044.05      2348.3685      1.1646776    
    163000   299.79215     -201727.26     -180043.96      2354.8509      1.156272     
    164000   300.53223     -201721.51     -180043.97      2360.465       1.1745535    
    165000   301.28766     -201748.74     -180044.23      2366.3867      1.1588888    
    166000   301.13506     -201758.84     -180044.35      2372.9105      1.1677184    
    167000   300.09568     -201727.46     -180044.08      2379.2762      1.1774413    
    168000   299.5822      -201708.84     -180043.96      2385.5599      1.1327009    
    169000   301.38241     -201703.9      -180030.35      2402.9633      1.1454157    
    170000   302.7785      -201711.53     -180030.51      2408.3196      1.1755149    
    171000   303.32104     -201745.03     -180030.32      2413.9721      1.1808241    
    172000   303.58152     -201752.1      -180030.34      2419.2621      1.1873805    
    173000   302.22006     -201723.37     -180029.09      2424.4689      1.1857573    
    174000   300.52622     -201687.8      -180029.7       2431.9748      1.1627014    
    175000   301.89336     -201716.95     -180029.62      2439.1301      1.1771586    
    176000   302.95346     -201777.09     -180029.05      2443.0285      1.1854768    
    177000   303.27085     -201792.81     -180016.81      2451.8827      1.1767409    
    178000   302.21135     -201747.23     -180017.06      2456.3837      1.1966332    
    179000   300.23943     -201682.96     -180017.15      2462.3433      1.1728088    
    180000   299.58462     -201656.15     -180017.27      2467.4072      1.1611831    
    181000   301.73264     -201709.6      -179993.69      2493.0943      1.1827075    
    182000   301.87754     -201754.15     -179993.75      2498.6         1.1746969    
    183000   301.93644     -201731.33     -179994.24      2504.1736      1.15247      
    184000   303.08678     -201680.83     -179993.96      2511.2168      1.1584146    
    185000   303.44953     -201664.96     -179993.81      2517.4266      1.1757213    
    186000   305.1392      -201690.73     -179985.3       2534.1126      1.2104936    
    187000   306.24194     -201753.08     -179985.1       2542.1631      1.2353281    
    188000   307.08261     -201824.73     -179985.02      2546.577       1.236947     
    189000   307.01776     -201847.03     -179984.21      2552.9749      1.2221146    
    190000   307.37016     -201813.78     -179984.66      2559.1218      1.2382407    
    191000   305.32688     -201765.81     -179984.9       2564.5119      1.2378626    
    192000   305.00151     -201739.91     -179985.04      2570.6636      1.1998453    
    193000   305.98457     -201750.89     -179985.56      2577.3027      1.2019422    
    194000   306.36895     -201788.85     -179962.7       2586.9217      1.198471     
    195000   307.11788     -201835.37     -179962.24      2591.7289      1.1968521    
    196000   305.93231     -201868.26     -179962.64      2597.8672      1.2013007    
    197000   305.06565     -201879.62     -179962.51      2603.4309      1.1768866    
    198000   304.42815     -201874.74     -179962.41      2609.1936      1.183126     
    199000   303.4599      -201859.53     -179962.34      2613.0914      1.1941324    
    200000   303.96836     -201849.77     -179962.17      2617.8741      1.2126461    
    201000   303.9941      -201830.88     -179962.74      2622.1595      1.1985892    
    202000   304.65049     -201818.12     -179962.78      2628.3569      1.200274     
    203000   304.95661     -201809.25     -179962.84      2633.4167      1.2070129    
    204000   304.91258     -201839.74     -179963.13      2639.5272      1.1942043    
    205000   305.16263     -201882.54     -179963.36      2642.8026      1.1876799    
    206000   305.87964     -201911.69     -179963.36      2649.2733      1.1685086    
    207000   306.4726      -201919.17     -179963.12      2654.5234      1.1935388    
    208000   306.07843     -201880.13     -179963.04      2660.0018      1.2015247    
    209000   305.75911     -201790.63     -179962.93      2665.3018      1.1844233    
    210000   304.86176     -201737.27     -179963.01      2668.9173      1.2020717    
    211000   305.30674     -201750.71     -179962.94      2675.132       1.2102074    
    212000   305.72166     -201810.52     -179962.49      2679.3283      1.2374069    
    213000   304.04667     -201860.19     -179962.19      2684.2398      1.233329     
    214000   304.5001      -201937.83     -179962.38      2690.4212      1.2063304    
    215000   305.07357     -201998.01     -179961.83      2694.6946      1.1959823    
    216000   305.07796     -202005.27     -179961.6       2700.5818      1.2220438    
    217000   304.56544     -201994.48     -179961.21      2705.5367      1.2311917    
    218000   304.32577     -201987.92     -179961.46      2710.7517      1.195189     
    219000   306.17752     -201980.2      -179961.43      2716.7798      1.1849973    
    220000   308.21634     -201953.92     -179961.63      2721.4949      1.1885141    
    221000   307.38157     -201903.73     -179961.5       2726.5654      1.2124449    
    222000   306.03565     -201850.32     -179961.81      2731.4014      1.2069286    
    223000   305.31114     -201821.08     -179961.44      2736.0816      1.2067825    
    224000   304.05167     -201788.37     -179961.22      2740.8029      1.1937435    
    225000   304.55127     -201770.86     -179955.69      2749.553       1.1659187    
    226000   306.02757     -201797.13     -179955.41      2754.901       1.1594839    
    227000   306.12184     -201833.56     -179955.22      2759.7146      1.1560716    
    228000   307.37028     -201825.26     -179954.7       2765.7685      1.1767114    
    229000   307.01084     -201794.17     -179955.28      2772.3481      1.1948837    
    230000   305.44289     -201749.27     -179955.29      2778.1163      1.1667488    
    231000   306.39864     -201722.96     -179955.23      2782.6831      1.1881483    
    232000   306.16306     -201738.8      -179955.31      2788.5281      1.2108939    
    233000   308.22357     -201811.17     -179955.71      2792.2682      1.2148286    
    234000   310.74528     -201864.44     -179951.95      2798.5327      1.2481625    
    235000   310.15882     -201858.22     -179951.94      2801.5768      1.2460415    
    236000   309.60704     -201862.92     -179952.41      2806.5961      1.2407407    
    237000   308.0415      -201876.52     -179952.65      2811.4311      1.2404922    
    238000   306.95701     -201872.17     -179952.17      2815.2201      1.2361147    
    239000   307.04325     -201874.56     -179952.18      2818.9988      1.215408     
    240000   309.27043     -201885.03     -179951.87      2823.3177      1.2170993    
    241000   308.98689     -201837.54     -179952         2828.0672      1.2393521    
    242000   306.50717     -201749.51     -179935.03      2835.4838      1.2139401    
    243000   305.65857     -201713.22     -179934.68      2839.7125      1.2125587    
    244000   305.58447     -201727.99     -179934.4       2843.9829      1.2104903    
    245000   307.06678     -201747.16     -179934.34      2848.4291      1.2211556    
    246000   307.59834     -201745.93     -179934.13      2851.6793      1.2490033    
    247000   306.25894     -201704.81     -179933.93      2854.7215      1.2561235    
    248000   305.366       -201674.25     -179933.75      2859.7764      1.2513905    
    249000   305.04745     -201673.83     -179933.35      2865.4095      1.2335321    
    250000   307.85788     -201709.75     -179933.42      2870.1655      1.2480017    
    251000   308.33502     -201745.82     -179923.34      2884.0692      1.2737612    
    252000   307.12833     -201760.46     -179923.09      2888.9764      1.2585772    
    253000   306.17857     -201738.58     -179922.92      2891.358       1.255607     
    254000   303.54799     -201722.91     -179923.15      2896.4399      1.2198806    
    255000   304.13405     -201747.17     -179921.38      2903.3125      1.2002632    
    256000   305.74        -201776        -179921.01      2909.0422      1.2330828    
    257000   304.77161     -201757.05     -179921.25      2913.3894      1.2518154    
    258000   304.23341     -201715.52     -179920.74      2916.4672      1.226923     
    259000   304.21927     -201705.16     -179920.64      2921.3257      1.2242304    
    260000   304.26204     -201719.7      -179920.66      2927.685       1.2335037    
    261000   306.67166     -201752.5      -179920.74      2933.2062      1.2505839    
    262000   307.99489     -201757.6      -179920.11      2937.6073      1.2950047    
    263000   307.39483     -201759.08     -179920.68      2941.6053      1.3163933    
    264000   308.61672     -201801.59     -179920.63      2946.5797      1.3310929    
    265000   306.70288     -201861.44     -179920.81      2951.5124      1.3612216    
    266000   304.61463     -201902.72     -179921.43      2956.85        1.2987561    
    267000   307.15138     -201936.43     -179921.47      2960.1417      1.3072056    
    268000   307.70454     -201951.87     -179921.33      2965.0112      1.3463265    
    269000   308.61414     -201941.69     -179921.44      2969.2189      1.3317029    
    270000   308.5571      -201951.19     -179921.67      2972.6467      1.3284932    
    271000   307.00447     -201965.47     -179921.76      2977.4953      1.2784581    
    272000   307.02042     -201956.36     -179921.58      2981.798       1.261304     
    273000   306.46305     -201927.83     -179921.49      2985.7405      1.2637101    
    274000   306.33623     -201968.52     -179921.8       2990.7293      1.2372852    
    275000   307.00556     -202049.51     -179921.8       2995.9524      1.2687056    
    276000   306.11773     -202070.38     -179921.73      3000.0547      1.2896803    
    277000   303.92069     -201979.75     -179921.48      3002.8598      1.2887242    
    278000   303.40759     -201872.69     -179913.79      3007.4059      1.277209     
    279000   303.43212     -201826.58     -179913.63      3010.4409      1.2840999    
    280000   304.09978     -201896.5      -179913.54      3015.1952      1.2688347    
    281000   306.2097      -201965.16     -179913.26      3018.7049      1.3054109    
    282000   305.35944     -201996.82     -179913.29      3022.9606      1.325766     
    283000   307.34319     -202032.11     -179818.46      3051.206       1.3174048    
    284000   308.23857     -202061.83     -179818.18      3054.6272      1.3298344    
    285000   307.8361      -202062.61     -179818.11      3058.6516      1.3075209    
    286000   309.17236     -202033.18     -179819.26      3062.5851      1.3147052    
    287000   310.45023     -202021.68     -179819.09      3068.4857      1.3390107    
    288000   311.15383     -202038.8      -179818.78      3073.3512      1.3577276    
    289000   309.40275     -202049.56     -179816.18      3079.0324      1.3538586    
    290000   308.02718     -202081.34     -179816.61      3081.7142      1.3251388    
    291000   307.59702     -202126.87     -179816.3       3085.856       1.3074879    
    292000   307.38862     -202146.15     -179816.33      3089.4266      1.2968695    
    293000   308.94487     -202113.28     -179789.37      3115.1601      1.3315604    
[...]
    819000   331.28628     -203009.85     -179155.63      1174.7042      1.5450173      1.493233     
    820000   331.53983     -202980.27     -179146.09      1177.8213      1.5658744      1.4934593    
    821000   332.36503     -202949.82     -179146.44      1180.4446      1.5912929      1.4937632    
    822000   334.80525     -202973.46     -179146.76      1183.1654      1.5771413      1.4940213    
    823000   334.0634      -203031.84     -179147         1185.8043      1.6152793      1.4943955    
    824000   333.34972     -203077.43     -179146.97      1187.3045      1.5856912      1.4946765    
    825000   333.55582     -203136.49     -179147.04      1189.4803      1.537312       1.4948072    
    826000   334.62033     -203170.82     -179146.79      1191.3813      1.5686793      1.4950331    
    827000   335.98099     -203136.29     -179135.62      1193.0578      1.56673        1.4952517    
    828000   335.12581     -203036.44     -179135.1       1195.3588      1.5767076      1.4954993    
    829000   332.8569      -203010.35     -179134.46      1196.8872      1.5826043      1.4957633    
    830000   332.10345     -203056.57     -179134.33      1199.1761      1.564607       1.4959713    
    831000   331.75692     -203118.42     -179134.11      1202.0626      1.5363513      1.4960929    
    832000   333.43755     -203152.68     -179134.09      1204.5106      1.5526415      1.4962627    
    833000   335.70918     -203128.62     -179134.38      1206.8476      1.5265249      1.4963533    
    834000   336.14105     -203047.82     -179133.13      1210.3003      1.5478985      1.4965072    
    835000   334.18784     -202954.09     -179132.93      1212.1223      1.584239       1.4967683    
    836000   332.61672     -202917.83     -179132.7       1215.0137      1.5703779      1.4969867    
    837000   331.51022     -202976.95     -179132.92      1217.5732      1.5940275      1.4972738    
    838000   333.05773     -203075.72     -179132.97      1219.2977      1.6405514      1.4976965    
    839000   334.73694     -203171.56     -179133.45      1221.8912      1.640201       1.4981156    
    840000   334.21301     -203219.16     -179133.3       1223.2308      1.6502841      1.4985618    
    841000   334.95438     -203216.01     -179133.46      1225.1687      1.6396304      1.4989743    
    842000   336.20988     -203167.96     -179133.22      1227.468       1.6705373      1.4994745    
    843000   334.43994     -203045.53     -179132.79      1229.9705      1.6740487      1.499982     
    844000   332.46419     -202920.1      -179132.9       1232.3987      1.63347        1.5003689    
    845000   331.45458     -202928.75     -179133.12      1234.5253      1.5998887      1.5006565    
    846000   333.52581     -203033.31     -179133.39      1236.7784      1.6139419      1.500983     
    847000   335.33212     -203124.06     -179133.57      1239.2129      1.634801       1.5013675    
    848000   335.83634     -203199.94     -179134.09      1241.1992      1.5911313      1.5016247    
    849000   334.80702     -203190.59     -179134.01      1243.142       1.5606481      1.5017934    
    850000   333.01452     -203091.76     -179133.76      1244.7476      1.5538293      1.5019416    
    851000   331.28134     -203012.63     -179129.41      1251.4473      1.5577805      1.5021003    
    852000   330.94365     -203023.88     -179129.34      1252.4592      1.5707136      1.5022946    
    853000   334.37244     -203098.89     -179129.5       1255.0592      1.5612665      1.5024612    
    854000   333.86035     -203183.1      -179129.24      1257.04        1.552703       1.5026027    
    855000   332.81818     -203219.21     -179129.27      1260.0081      1.5219429      1.5026571    
    856000   332.90157     -203165.56     -179128.78      1262.9002      1.5503208      1.5027906    
    857000   329.67354     -203087.5      -179129.24      1265.0984      1.5789999      1.5030035    
    858000   330.55881     -203035.37     -179128.87      1267.1315      1.5603463      1.5031632    
    859000   333.39676     -203047.09     -179128.61      1269.1478      1.5436006      1.5032755    
    860000   332.18318     -203122.72     -179128.33      1270.9983      1.5443507      1.5033893    
    861000   332.89786     -203152.17     -179105.93      1272.914       1.5737698      1.5035837    
    862000   332.54748     -203174.29     -179105.93      1274.9282      1.5785712      1.5037903    
    863000   331.6705      -203216.9      -179106.37      1277.1104      1.595493       1.5040422    
    864000   333.89946     -203240.45     -179098.83      1285.8792      1.5862635      1.5042675    
    865000   334.98961     -203211.13     -179099.03      1287.4078      1.6064478      1.5045467    
    866000   332.87196     -203154.39     -179099.01      1289.612       1.6058857      1.5048228    
    867000   332.31975     -203148.17     -179098.83      1292.7853      1.6111542      1.5051117    
    868000   331.88685     -203184.71     -179099.04      1294.3296      1.6308175      1.5054524    
    869000   330.46262     -203215.42     -179099.1       1296.0761      1.6322633      1.5057951    
    870000   332.77188     -203203.96     -179099.09      1299.9676      1.6040515      1.50606      
    871000   334.43965     -203156.9      -179099.17      1301.5097      1.5993777      1.5063108    
    872000   334.78989     -203118.37     -179099.08      1303.2282      1.6022593      1.5065681    
    873000   334.68774     -203115.55     -179098.95      1306.0819      1.595393       1.5068056    
    874000   334.5287      -203185.06     -179099.06      1307.4395      1.6171116      1.5070997    
    875000   334.3141      -203259.12     -179098.94      1310.4616      1.5979627      1.5073414    
    876000   336.37326     -203301.23     -179097.35      1314.4325      1.5839403      1.5075446    
    877000   335.96616     -203289.92     -179088.94      1322.5083      1.6038067      1.5077992    
    878000   336.85288     -203252.4      -179086.74      1325.2506      1.6080445      1.5080637    
    879000   338.10511     -203205.88     -179086.41      1327.1865      1.5953835      1.5082935    
    880000   336.99063     -203190.06     -179062.78      1352.2639      1.5886843      1.5085045    
    881000   336.07651     -203256.11     -179062.97      1354.2835      1.6302723      1.5088233    
    882000   335.32705     -203337.9      -179062.95      1356.8326      1.6135168      1.5090966    
    883000   333.30423     -203351.47     -179062.88      1358.8972      1.6225528      1.5093921    
    884000   333.6117      -203303.16     -179060.23      1362.9789      1.6185144      1.5096755    
    885000   334.88494     -203214.53     -179059.96      1363.9764      1.607928       1.5099301    
    886000   333.82053     -203128.05     -179059.9       1367.4891      1.6463407      1.5102825    
    887000   334.3256      -203126.94     -179060.01      1369.2888      1.6457447      1.5106317    
    888000   333.53737     -203187.83     -179060.08      1372.015       1.6167004      1.5109043    
    889000   334.4271      -203277.11     -179060.27      1374.6315      1.6018444      1.5111375    
    890000   335.13579     -203373.61     -179059.91      1378.1751      1.6032538      1.5113731    
    891000   335.92635     -203437.87     -179059.86      1379.7074      1.6126332      1.5116314    
    892000   334.11267     -203448.18     -179056.79      1383.8048      1.637235       1.511951     
    893000   333.47041     -203422.47     -179057.15      1387.3233      1.6244502      1.5122366    
    894000   333.47679     -203364.64     -179056.92      1389.3717      1.6032086      1.5124669    
    895000   333.88844     -203286.4      -179056.12      1392.5498      1.607826       1.5127077    
    896000   336.20356     -203263.86     -179056.28      1395.7531      1.6240162      1.512988     
    897000   335.93119     -203296.73     -179056.41      1397.3277      1.6411293      1.51331      
    898000   337.23309     -203301.5      -179056.59      1399.2212      1.6459105      1.5136423    
    899000   335.18909     -203227.94     -179056.23      1401.1782      1.6402837      1.5139589    
    900000   332.79263     -203155.61     -179056.16      1403.1071      1.5969016      1.5141658    
    901000   333.50065     -203129.91     -179056.12      1405.4431      1.610668       1.5144058    
    902000   332.37537     -203177.94     -179056.27      1407.6672      1.6098224      1.5146426    
    903000   334.47736     -203238.45     -179056.91      1409.654       1.5974284      1.5148475    
    904000   335.9026      -203300.01     -179056.75      1411.4995      1.6337362      1.5151411    
    905000   337.0871      -203340.95     -179056.37      1413.8024      1.6715853      1.5155264    
    906000   334.79121     -203318.74     -179056.71      1416.1582      1.6503153      1.5158576    
    907000   334.00651     -203278.16     -179056.8       1418.1087      1.6390368      1.5161595    
    908000   333.4739      -203231.94     -179057.11      1419.7032      1.6448231      1.5164741    
    909000   334.1064      -203181.63     -179057.18      1421.831       1.6127155      1.5167088    
    910000   336.52413     -203122.19     -179057.63      1424.8449      1.6194685      1.5169588    
    911000   335.11079     -203111.83     -179057.22      1427.2725      1.6023933      1.5171662    
    912000   336.7746      -203151.88     -179057.21      1430.0074      1.5635364      1.5172785    
    913000   337.02951     -203217.35     -179057.49      1431.4641      1.5591504      1.5173796    
    914000   337.03268     -203260.9      -179057.26      1434.4947      1.5128092      1.5173686    
    915000   337.06326     -203232.01     -179057.29      1436.0564      1.5264287      1.5173904    
    916000   336.68419     -203151.8      -179057.4       1438.4263      1.5576956      1.517487     
    917000   338.31098     -203101.66     -179057.95      1440.6793      1.5813679      1.5176399    
    918000   338.58573     -203131.28     -179058.11      1441.981       1.6164615      1.5178757    
    919000   337.27577     -203162.65     -179058.32      1445.1876      1.5938217      1.5180565    
    920000   336.88344     -203221.02     -179057.74      1447.2813      1.5283282      1.5180809    
    921000   334.80454     -203273.28     -179057.42      1449.6844      1.545766       1.5181465    
    922000   337.343       -203257.19     -179057.13      1451.2653      1.5748027      1.5182805    
    923000   336.6739      -203194.81     -179057.32      1453.4602      1.5958409      1.5184634    
    924000   337.2362      -203121.64     -179057.25      1454.9799      1.6538911      1.5187821    
    925000   336.58855     -203092.72     -179056.85      1458.5756      1.6303373      1.5190439    
    926000   336.58863     -203123.34     -179057.3       1461.9567      1.5905402      1.5192114    
    927000   338.32702     -203206.83     -179056.79      1463.8001      1.6355662      1.5194832    
    928000   337.51776     -203239.93     -179056.84      1465.5158      1.6249301      1.519729     
    929000   337.5687      -203219.27     -179057.01      1466.9903      1.6134747      1.519947     
    930000   333.74531     -203104.62     -179056.55      1469.4943      1.6210073      1.5201815    
    931000   333.76021     -203012.1      -179056.43      1470.6987      1.5779123      1.5203151    
    932000   333.31718     -202993.11     -179056.74      1473.1671      1.5669348      1.5204228    
    933000   332.0327      -203019.9      -179056.44      1475.4145      1.5439681      1.5204771    
    934000   332.83504     -203118.15     -179056.4       1477.1972      1.5416062      1.5205256    
    935000   332.76264     -203266.8      -179056.53      1479.0723      1.5644101      1.5206263    
    936000   333.49854     -203409.48     -179056.67      1481.0803      1.5892017      1.5207832    
    937000   333.5476      -203471.51     -179056.28      1483.0302      1.5924455      1.5209468    
    938000   334.08181     -203394.31     -179056.11      1485.3898      1.6141798      1.5211592    
    939000   333.9957      -203230.17     -179056.06      1487.3222      1.6441533      1.5214387    
    940000   331.57705     -203114.84     -179056.44      1488.9536      1.5872108      1.5215879    
    941000   332.97313     -203123.6      -179056.86      1491.2809      1.5778647      1.5217152    
    942000   333.09659     -203223.35     -179057.01      1492.1097      1.6330224      1.5219664    
    943000   332.01278     -203270.72     -179057.34      1494.951       1.6088658      1.5221622    
    944000   331.54219     -203279.24     -179057.12      1497.9369      1.6213448      1.5223851    
    945000   332.72334     -203233.75     -179056.43      1499.397       1.6432253      1.522656     
    946000   333.74625     -203190.91     -179057         1500.9618      1.6252811      1.5228856    
    947000   335.23944     -203181.79     -179057.21      1502.4486      1.6371617      1.5231407    
    948000   334.57577     -203183.1      -179057.52      1503.9175      1.6384927      1.5233976    
    949000   331.86027     -203132.67     -179056.7       1506.0958      1.5877583      1.5235406    
    950000   330.23619     -203093.48     -179055.99      1508.1086      1.5628889      1.5236278    
    951000   332.77347     -203173.69     -179055.96      1510.1728      1.5816667      1.5237562    
    952000   336.52618     -203306.13     -179055.09      1512.7657      1.5951335      1.5239138    
    953000   340.23493     -203377.57     -179055.75      1515.415       1.6502115      1.524192     
    954000   337.99957     -203351.71     -179055.44      1516.8844      1.6681985      1.5245085    
    955000   335.69927     -203296.65     -179055.68      1519.027       1.6499728      1.5247836    
    956000   334.77642     -203263.14     -179055.49      1520.6722      1.6510316      1.5250599    
    957000   333.05034     -203277.16     -179055.33      1522.6436      1.6091172      1.5252434    
    958000   335.3666      -203376.88     -179055.61      1524.8346      1.6053105      1.5254179    
    959000   337.40755     -203423.87     -179055.53      1526.364       1.6632967      1.5257176    
    960000   337.87995     -203389.6      -179055.34      1529.2294      1.6384235      1.5259621    
    961000   338.76129     -203403.98     -179055.67      1531.9371      1.6464365      1.5262228    
    962000   339.74121     -203478.69     -179043.68      1545.1911      1.6566432      1.5265045    
    963000   337.86428     -203551.87     -179035.06      1553.4676      1.6330001      1.526734     
    964000   335.78969     -203574.86     -179034.83      1555.833       1.5785027      1.5268454    
    965000   335.68275     -203522.51     -179034.95      1558.4353      1.5639859      1.5269251    
    966000   336.27369     -203413.24     -179035         1559.7651      1.5613871      1.5269989    
    967000   334.97106     -203298.66     -179034.99      1563.1188      1.5785418      1.527109     
    968000   335.75911     -203319.08     -179034.97      1565.0308      1.6063819      1.527278     
    969000   335.18935     -203438.32     -179034.83      1567.7779      1.5679925      1.5273647    
    970000   335.80114     -203525.75     -179035.3       1570.215       1.5920588      1.527502     
    971000   335.62174     -203564.66     -179035.24      1572.147       1.5789313      1.527611     
    972000   335.94868     -203509.75     -179035.55      1574.3125      1.5699138      1.5277004    
    973000   336.60849     -203437.71     -179035.95      1576.0176      1.6193648      1.5278938    
    974000   337.76801     -203362.06     -179035.7       1578.4087      1.6163508      1.52808      
    975000   337.4312      -203310.04     -179035.2       1579.8915      1.6146159      1.5282618    
    976000   336.16645     -203303.15     -179035.21      1582.2022      1.5802859      1.5283709    
    977000   337.16585     -203317.32     -179035.13      1583.8243      1.5709862      1.52846      
    978000   335.82816     -203315.85     -179035         1586.9341      1.535091       1.5284739    
    979000   337.26335     -203366.95     -179035.09      1588.2375      1.5444943      1.5285073    
    980000   338.54887     -203437.58     -179034.86      1591.8207      1.5822947      1.5286191    
    981000   339.2038      -203461.49     -179034.44      1594.362       1.5694789      1.5287039    
    982000   337.2853      -203391.77     -179034.41      1596.2038      1.6051672      1.5288622    
    983000   338.7507      -203380.57     -179035.15      1598.7485      1.5926164      1.5289939    
    984000   339.11212     -203388.7      -179034.8       1601.4413      1.6100563      1.529161     
    985000   340.67809     -203446.88     -179034.45      1603.392       1.6012511      1.5293094    
    986000   341.34401     -203468.46     -179034.6       1605.3375      1.5833606      1.5294203    
    987000   337.65265     -203433.6      -179034.43      1608.3301      1.5672858      1.5294979    
    988000   338.07555     -203401.75     -179034.65      1610.1954      1.5529981      1.529546     
    989000   338.99022     -203396.49     -179034.72      1611.6807      1.5951069      1.5296798    
    990000   339.49319     -203374.01     -179023.03      1624.123       1.5720053      1.529766     
    991000   343.43409     -203376.97     -179022.87      1625.5876      1.6305473      1.5299708    
    992000   341.87826     -203399.22     -179022.98      1628.2108      1.6870892      1.5302895    
    993000   340.30017     -203444.92     -179023.01      1630.1799      1.6728171      1.5305781    
    994000   338.77447     -203483.26     -179022.59      1633.2448      1.6658518      1.5308513    
    995000   338.20957     -203490.58     -179022.15      1636.5124      1.5831268      1.5309567    
    996000   340.37506     -203458.09     -179016.21      1643.7602      1.5725465      1.5310404    
    997000   340.40057     -203380.46     -179016.39      1645.4121      1.5659369      1.5311105    
    998000   340.26289     -203318.89     -179016.51      1647.1558      1.5982774      1.5312451    
    999000   337.70162     -203266.81     -179016.58      1649.464       1.5910781      1.5313648    
   1000000   337.53263     -203238.05     -179015.99      1652.2888      1.6206316      1.5315429    
WARNING: Bond/angle/dihedral extent > half of periodic box length (src/domain.cpp:940)
Loop time of 26753.8 on 8 procs for 500000 steps with 14040 atoms

Performance: 0.003 ns/day, 7431.607 hours/ns, 18.689 timesteps/s, 262.393 katom-step/s
82.9% CPU use with 8 MPI tasks x 1 OpenMP threads

MPI task timing breakdown:
Section |  min time  |  avg time  |  max time  |%varavg| %total
---------------------------------------------------------------
Pair    | 7295.2     | 12614      | 18787      |4021.1 | 47.15
Bond    | 1402.5     | 2426.4     | 3589.9     |1916.7 |  9.07
Kspace  | 3588.1     | 10744      | 16972      |5145.6 | 40.16
Neigh   | 11.551     | 11.573     | 11.588     |   0.5 |  0.04
Comm    | 582.36     | 696.72     | 780.57     | 280.0 |  2.60
Output  | 6.8307     | 6.8425     | 6.8726     |   0.5 |  0.03
Modify  | 47.283     | 52.361     | 54.805     |  29.2 |  0.20
Other   |            | 201.5      |            |       |  0.75

Nlocal:           1755 ave        1926 max        1595 min
Histogram: 2 1 1 0 0 1 0 0 0 3
Nghost:        13795.1 ave       13953 max       13619 min
Histogram: 2 1 0 0 0 1 1 0 1 2
Neighs:              0 ave           0 max           0 min
Histogram: 8 0 0 0 0 0 0 0 0 0

Total # of neighbors = 0
Ave neighs/atom = 0
Ave special neighs/atom = 12.012821
Neighbor list builds = 73
Dangerous builds = 0

Total wall time: 24:45:26
